#	252	500
TITLE ="triangle file"
VARIABLES ="X", "Y","Z",
ZONE T="DELAUNAY",N=252 ,E=500 ,ET=TRIANGLE F=FEPOINT
0.140905	0.102374	0.468685
0.256911	0.105818	0.415691
0.180030	0.211638	0.415691
0.356189	0.102374	0.335632
0.291294	0.211638	0.346926
0.207432	0.307121	0.335632
0.030465	0.093761	0.490185
0.064493	0.198490	0.454360
-0.053821	0.165644	0.468685
0.096740	0.297734	0.389867
-0.021250	0.277037	0.415691
-0.145647	0.236618	0.415691
0.121859	0.375045	0.307395
0.012705	0.370391	0.335632
-0.111265	0.342436	0.346926
-0.227990	0.292185	0.335632
-0.079758	0.057947	0.490185
-0.168845	0.122673	0.454360
-0.174169	0.000000	0.468685
-0.253268	0.184010	0.389867
-0.270044	0.065399	0.415691
-0.270044	-0.065399	0.415691
-0.319032	0.231791	0.307395
-0.348337	0.126541	0.335632
-0.360059	0.000000	0.346926
-0.348337	-0.126541	0.335632
-0.079758	-0.057947	0.490185
-0.168845	-0.122673	0.454360
-0.053821	-0.165644	0.468685
-0.253268	-0.184010	0.389867
-0.145647	-0.236618	0.415691
-0.021250	-0.277037	0.415691
-0.319032	-0.231791	0.307395
-0.227990	-0.292185	0.335632
-0.111265	-0.342436	0.346926
0.012705	-0.370391	0.335632
0.000000	0.000000	0.500000
0.030465	-0.093761	0.490185
0.098586	0.000000	0.490185
0.064493	-0.198490	0.454360
0.140905	-0.102374	0.468685
0.208704	0.000000	0.454360
0.096740	-0.297734	0.389867
0.180030	-0.211638	0.415691
0.256911	-0.105818	0.415691
0.313056	0.000000	0.389867
0.121859	-0.375045	0.307395
0.207432	-0.307121	0.335632
0.291294	-0.211638	0.346926
0.356189	-0.102374	0.335632
0.394345	0.000000	0.307395
0.402158	0.292185	-0.053821
0.360059	0.342436	0.055632
0.436941	0.236618	0.055632
0.294516	0.370391	0.161463
0.381308	0.277037	0.166897
0.443274	0.165644	0.161463
0.220445	0.375045	0.246466
0.305444	0.297734	0.260880
0.377549	0.198490	0.260880
0.424810	0.093761	0.246466
-0.153611	0.472766	-0.053821
-0.214412	0.448255	0.055632
-0.090014	0.488674	0.055632
-0.261253	0.394558	0.161463
-0.145647	0.448255	0.166897
-0.020558	0.472766	0.161463
-0.288567	0.325551	0.246466
-0.188775	0.382499	0.260880
-0.072106	0.420407	0.260880
0.042101	0.432992	0.246466
-0.497095	0.000000	-0.053821
-0.492573	-0.065399	0.055632
-0.492573	0.065399	0.055632
-0.455979	-0.126541	0.161463
-0.471323	0.000000	0.166897
-0.455979	0.126541	0.161463
-0.398790	-0.173843	0.246466
-0.422113	-0.061337	0.260880
-0.422113	0.061337	0.260880
-0.398790	0.173843	0.246466
-0.153611	-0.472766	-0.053821
-0.090014	-0.488674	0.055632
-0.214412	-0.448255	0.055632
-0.020558	-0.472766	0.161463
-0.145647	-0.448255	0.166897
-0.261253	-0.394558	0.161463
0.042101	-0.432992	0.246466
-0.072106	-0.420407	0.260880
-0.188775	-0.382499	0.260880
-0.288567	-0.325551	0.246466
0.402158	-0.292185	-0.053821
0.436941	-0.236618	0.055632
0.360059	-0.342436	0.055632
0.443274	-0.165644	0.161463
0.381308	-0.277037	0.166897
0.294516	-0.370391	0.161463
0.424810	-0.093761	0.246466
0.377549	-0.198490	0.260880
0.305444	-0.297734	0.260880
0.220445	-0.375045	0.246466
0.138196	0.425326	0.223607
0.091395	0.468805	0.147879
0.201618	0.432992	0.147879
0.032247	0.496223	0.052176
0.153611	0.472766	0.053821
0.265585	0.420407	0.052176
-0.032247	0.496223	-0.052176
0.090014	0.488674	-0.055632
0.214412	0.448255	-0.055632
0.317761	0.382499	-0.052176
-0.091395	0.468805	-0.147879
0.020558	0.472766	-0.161463
0.145647	0.448255	-0.166897
0.261253	0.394558	-0.161463
0.349496	0.325551	-0.147879
-0.361804	0.262865	0.223607
-0.417618	0.231791	0.147879
-0.349496	0.325551	0.147879
-0.461972	0.184010	0.052176
-0.402158	0.292185	0.053821
-0.317761	0.382499	0.052176
-0.481901	0.122673	-0.052176
-0.436941	0.236618	-0.055632
-0.360059	0.342436	-0.055632
-0.265585	0.420407	-0.052176
-0.474103	0.057947	-0.147879
-0.443274	0.165644	-0.161463
-0.381308	0.277037	-0.166897
-0.294516	0.370391	-0.161463
-0.201618	0.432992	-0.147879
-0.361804	-0.262865	0.223607
-0.349496	-0.325551	0.147879
-0.417618	-0.231791	0.147879
-0.317761	-0.382499	0.052176
-0.402158	-0.292185	0.053821
-0.461972	-0.184010	0.052176
-0.265585	-0.420407	-0.052176
-0.360059	-0.342436	-0.055632
-0.436941	-0.236618	-0.055632
-0.481901	-0.122673	-0.052176
-0.201618	-0.432992	-0.147879
-0.294516	-0.370391	-0.161463
-0.381308	-0.277037	-0.166897
-0.443274	-0.165644	-0.161463
-0.474103	-0.057947	-0.147879
0.138196	-0.425326	0.223607
0.201618	-0.432992	0.147879
0.091395	-0.468805	0.147879
0.265585	-0.420407	0.052176
0.153611	-0.472766	0.053821
0.032247	-0.496223	0.052176
0.317761	-0.382499	-0.052176
0.214412	-0.448255	-0.055632
0.090014	-0.488674	-0.055632
-0.032247	-0.496223	-0.052176
0.349496	-0.325551	-0.147879
0.261253	-0.394558	-0.161463
0.145647	-0.448255	-0.166897
0.020558	-0.472766	-0.161463
-0.091395	-0.468805	-0.147879
0.447213	0.000000	0.223607
0.474103	0.057947	0.147879
0.474103	-0.057947	0.147879
0.481901	0.122673	0.052176
0.497095	0.000000	0.053821
0.481901	-0.122673	0.052176
0.461972	0.184010	-0.052176
0.492573	0.065399	-0.055632
0.492573	-0.065399	-0.055632
0.461972	-0.184010	-0.052176
0.417618	0.231791	-0.147879
0.455979	0.126541	-0.161463
0.471323	0.000000	-0.166897
0.455979	-0.126541	-0.161463
0.417618	-0.231791	-0.147879
0.053821	0.165644	-0.468685
0.145647	0.236618	-0.415691
0.021250	0.277037	-0.415691
0.227990	0.292185	-0.335632
0.111265	0.342436	-0.346926
-0.012705	0.370391	-0.335632
0.288567	0.325551	-0.246466
0.188775	0.382499	-0.260880
0.072106	0.420407	-0.260880
-0.042101	0.432992	-0.246466
-0.030465	0.093761	-0.490185
-0.064493	0.198490	-0.454360
-0.140905	0.102374	-0.468685
-0.096740	0.297734	-0.389867
-0.180030	0.211638	-0.415691
-0.256911	0.105818	-0.415691
-0.121859	0.375045	-0.307395
-0.207432	0.307121	-0.335632
-0.291294	0.211638	-0.346926
-0.356189	0.102374	-0.335632
-0.138196	0.425326	-0.223607
-0.220445	0.375045	-0.246466
-0.305444	0.297734	-0.260880
-0.377549	0.198490	-0.260880
-0.424810	0.093761	-0.246466
-0.098586	0.000000	-0.490185
-0.208704	0.000000	-0.454360
-0.140905	-0.102374	-0.468685
-0.313056	0.000000	-0.389867
-0.256911	-0.105818	-0.415691
-0.180030	-0.211638	-0.415691
-0.394345	0.000000	-0.307395
-0.356189	-0.102374	-0.335632
-0.291294	-0.211638	-0.346926
-0.207432	-0.307121	-0.335632
-0.447213	0.000000	-0.223607
-0.424810	-0.093761	-0.246466
-0.377549	-0.198490	-0.260880
-0.305444	-0.297734	-0.260880
-0.220445	-0.375045	-0.246466
-0.030465	-0.093761	-0.490185
-0.064493	-0.198490	-0.454360
0.053821	-0.165644	-0.468685
-0.096740	-0.297734	-0.389867
0.021250	-0.277037	-0.415691
0.145647	-0.236618	-0.415691
-0.121859	-0.375045	-0.307395
-0.012705	-0.370391	-0.335632
0.111265	-0.342436	-0.346926
0.227990	-0.292185	-0.335632
-0.138196	-0.425326	-0.223607
-0.042101	-0.432992	-0.246466
0.072106	-0.420407	-0.260880
0.188775	-0.382499	-0.260880
0.288567	-0.325551	-0.246466
0.000000	0.000000	-0.500000
0.079758	-0.057947	-0.490185
0.079758	0.057947	-0.490185
0.168845	-0.122673	-0.454360
0.174169	0.000000	-0.468685
0.168845	0.122673	-0.454360
0.253268	-0.184010	-0.389867
0.270044	-0.065399	-0.415691
0.270044	0.065399	-0.415691
0.253268	0.184010	-0.389867
0.319032	-0.231791	-0.307395
0.348337	-0.126541	-0.335632
0.360059	0.000000	-0.346926
0.348337	0.126541	-0.335632
0.319032	0.231791	-0.307395
0.361804	-0.262865	-0.223607
0.398790	-0.173843	-0.246466
0.422113	-0.061337	-0.260880
0.422113	0.061337	-0.260880
0.398790	0.173843	-0.246466
0.361804	0.262865	-0.223607
37	39	7
39	42	1
39	1	7
7	1	8
42	46	2
42	2	1
1	2	3
1	3	8
8	3	10
46	51	4
46	4	2
2	4	5
2	5	3
3	5	6
3	6	10
10	6	13
51	162	61
51	61	4
4	61	60
4	60	5
5	60	59
5	59	6
6	59	58
6	58	13
13	58	102
37	7	17
7	8	9
7	9	17
17	9	18
8	10	11
8	11	9
9	11	12
9	12	18
18	12	20
10	13	14
10	14	11
11	14	15
11	15	12
12	15	16
12	16	20
20	16	23
13	102	71
13	71	14
14	71	70
14	70	15
15	70	69
15	69	16
16	69	68
16	68	23
23	68	117
37	17	27
17	18	19
17	19	27
27	19	28
18	20	21
18	21	19
19	21	22
19	22	28
28	22	30
20	23	24
20	24	21
21	24	25
21	25	22
22	25	26
22	26	30
30	26	33
23	117	81
23	81	24
24	81	80
24	80	25
25	80	79
25	79	26
26	79	78
26	78	33
33	78	132
37	27	38
27	28	29
27	29	38
38	29	40
28	30	31
28	31	29
29	31	32
29	32	40
40	32	43
30	33	34
30	34	31
31	34	35
31	35	32
32	35	36
32	36	43
43	36	47
33	132	91
33	91	34
34	91	90
34	90	35
35	90	89
35	89	36
36	89	88
36	88	47
47	88	147
37	38	39
38	40	41
38	41	39
39	41	42
40	43	44
40	44	41
41	44	45
41	45	42
42	45	46
43	47	48
43	48	44
44	48	49
44	49	45
45	49	50
45	50	46
46	50	51
47	147	101
47	101	48
48	101	100
48	100	49
49	100	99
49	99	50
50	99	98
50	98	51
51	98	162
116	252	172
111	116	52
116	52	172
172	52	168
107	111	53
111	53	52
52	53	54
52	54	168
168	54	165
104	107	55
107	55	53
53	55	56
53	56	54
54	56	57
54	57	165
165	57	163
102	104	58
104	58	55
55	58	59
55	59	56
56	59	60
56	60	57
57	60	61
57	61	163
163	61	162
131	197	112
126	131	62
131	62	112
112	62	108
122	126	63
126	63	62
62	63	64
62	64	108
108	64	105
119	122	65
122	65	63
63	65	66
63	66	64
64	66	67
64	67	105
105	67	103
117	119	68
119	68	65
65	68	69
65	69	66
66	69	70
66	70	67
67	70	71
67	71	103
103	71	102
146	212	127
141	146	72
146	72	127
127	72	123
137	141	73
141	73	72
72	73	74
72	74	123
123	74	120
134	137	75
137	75	73
73	75	76
73	76	74
74	76	77
74	77	120
120	77	118
132	134	78
134	78	75
75	78	79
75	79	76
76	79	80
76	80	77
77	80	81
77	81	118
118	81	117
161	227	142
156	161	82
161	82	142
142	82	138
152	156	83
156	83	82
82	83	84
82	84	138
138	84	135
149	152	85
152	85	83
83	85	86
83	86	84
84	86	87
84	87	135
135	87	133
147	149	88
149	88	85
85	88	89
85	89	86
86	89	90
86	90	87
87	90	91
87	91	133
133	91	132
176	247	157
171	176	92
176	92	157
157	92	153
167	171	93
171	93	92
92	93	94
92	94	153
153	94	150
164	167	95
167	95	93
93	95	96
93	96	94
94	96	97
94	97	150
150	97	148
162	164	98
164	98	95
95	98	99
95	99	96
96	99	100
96	100	97
97	100	101
97	101	148
148	101	147
102	103	104
103	105	106
103	106	104
104	106	107
105	108	109
105	109	106
106	109	110
106	110	107
107	110	111
108	112	113
108	113	109
109	113	114
109	114	110
110	114	115
110	115	111
111	115	116
112	197	186
112	186	113
113	186	185
113	185	114
114	185	184
114	184	115
115	184	183
115	183	116
116	183	252
117	118	119
118	120	121
118	121	119
119	121	122
120	123	124
120	124	121
121	124	125
121	125	122
122	125	126
123	127	128
123	128	124
124	128	129
124	129	125
125	129	130
125	130	126
126	130	131
127	212	201
127	201	128
128	201	200
128	200	129
129	200	199
129	199	130
130	199	198
130	198	131
131	198	197
132	133	134
133	135	136
133	136	134
134	136	137
135	138	139
135	139	136
136	139	140
136	140	137
137	140	141
138	142	143
138	143	139
139	143	144
139	144	140
140	144	145
140	145	141
141	145	146
142	227	216
142	216	143
143	216	215
143	215	144
144	215	214
144	214	145
145	214	213
145	213	146
146	213	212
147	148	149
148	150	151
148	151	149
149	151	152
150	153	154
150	154	151
151	154	155
151	155	152
152	155	156
153	157	158
153	158	154
154	158	159
154	159	155
155	159	160
155	160	156
156	160	161
157	247	231
157	231	158
158	231	230
158	230	159
159	230	229
159	229	160
160	229	228
160	228	161
161	228	227
162	163	164
163	165	166
163	166	164
164	166	167
165	168	169
165	169	166
166	169	170
166	170	167
167	170	171
168	172	173
168	173	169
169	173	174
169	174	170
170	174	175
170	175	171
171	175	176
172	252	251
172	251	173
173	251	250
173	250	174
174	250	249
174	249	175
175	249	248
175	248	176
176	248	247
232	234	187
234	237	177
234	177	187
187	177	188
237	241	178
237	178	177
177	178	179
177	179	188
188	179	190
241	246	180
241	180	178
178	180	181
178	181	179
179	181	182
179	182	190
190	182	193
246	252	183
246	183	180
180	183	184
180	184	181
181	184	185
181	185	182
182	185	186
182	186	193
193	186	197
232	187	202
187	188	189
187	189	202
202	189	203
188	190	191
188	191	189
189	191	192
189	192	203
203	192	205
190	193	194
190	194	191
191	194	195
191	195	192
192	195	196
192	196	205
205	196	208
193	197	198
193	198	194
194	198	199
194	199	195
195	199	200
195	200	196
196	200	201
196	201	208
208	201	212
232	202	217
202	203	204
202	204	217
217	204	218
203	205	206
203	206	204
204	206	207
204	207	218
218	207	220
205	208	209
205	209	206
206	209	210
206	210	207
207	210	211
207	211	220
220	211	223
208	212	213
208	213	209
209	213	214
209	214	210
210	214	215
210	215	211
211	215	216
211	216	223
223	216	227
232	217	233
217	218	219
217	219	233
233	219	235
218	220	221
218	221	219
219	221	222
219	222	235
235	222	238
220	223	224
220	224	221
221	224	225
221	225	222
222	225	226
222	226	238
238	226	242
223	227	228
223	228	224
224	228	229
224	229	225
225	229	230
225	230	226
226	230	231
226	231	242
242	231	247
232	233	234
233	235	236
233	236	234
234	236	237
235	238	239
235	239	236
236	239	240
236	240	237
237	240	241
238	242	243
238	243	239
239	243	244
239	244	240
240	244	245
240	245	241
241	245	246
242	247	248
242	248	243
243	248	249
243	249	244
244	249	250
244	250	245
245	250	251
245	251	246
246	251	252
