# 1997 3990
TITLE ="triangle file"
VARIABLES ="X", "Y","Z","
ZONE T="DELAUNAY",N= 1997 ,E= 3990 ,ET=TRIANGLE F=FEPOINT
0.000000 0.000000 0.000000
0.100000 0.000000 0.000000
0.200000 0.000000 0.000000
0.300000 0.000000 0.000000
0.400000 0.000000 0.000000
0.500000 0.000000 0.000000
0.600000 0.000000 0.000000
0.700000 0.000000 0.000000
0.800000 0.000000 0.000000
0.900000 0.000000 0.000000
1.000000 0.000000 0.000000
1.100000 0.000000 0.000000
1.200000 0.000000 0.000000
1.300000 0.000000 0.000000
1.400000 0.000000 0.000000
1.500000 0.000000 0.000000
1.600000 0.000000 0.000000
1.700000 0.000000 0.000000
1.800000 0.000000 0.000000
1.900000 0.000000 0.000000
2.000000 0.000000 0.000000
1.000000 1.000000 0.000000
1.100000 1.000000 0.000000
1.200000 1.000000 0.000000
1.300000 1.000000 0.000000
1.400000 1.000000 0.000000
1.500000 1.000000 0.000000
1.600000 1.000000 0.000000
1.700000 1.000000 0.000000
1.800000 1.000000 0.000000
1.900000 1.000000 0.000000
2.000000 1.000000 0.000000
1.000000 1.000000 1.000000
1.100000 1.000000 1.000000
1.200000 1.000000 1.000000
1.300000 1.000000 1.000000
1.400000 1.000000 1.000000
1.500000 1.000000 1.000000
1.600000 1.000000 1.000000
1.700000 1.000000 1.000000
1.800000 1.000000 1.000000
1.900000 1.000000 1.000000
2.000000 1.000000 1.000000
1.000000 0.000000 1.000000
1.100000 0.000000 1.000000
1.200000 0.000000 1.000000
1.300000 0.000000 1.000000
1.400000 0.000000 1.000000
1.500000 0.000000 1.000000
1.600000 0.000000 1.000000
1.700000 0.000000 1.000000
1.800000 0.000000 1.000000
1.900000 0.000000 1.000000
2.000000 0.000000 1.000000
0.000000 2.000000 0.000000
0.100000 2.000000 0.000000
0.200000 2.000000 0.000000
0.300000 2.000000 0.000000
0.400000 2.000000 0.000000
0.500000 2.000000 0.000000
0.600000 2.000000 0.000000
0.700000 2.000000 0.000000
0.800000 2.000000 0.000000
0.900000 2.000000 0.000000
1.000000 2.000000 0.000000
0.000000 2.000000 1.000000
0.100000 2.000000 1.000000
0.200000 2.000000 1.000000
0.300000 2.000000 1.000000
0.400000 2.000000 1.000000
0.500000 2.000000 1.000000
0.600000 2.000000 1.000000
0.700000 2.000000 1.000000
0.800000 2.000000 1.000000
0.900000 2.000000 1.000000
1.000000 2.000000 1.000000
0.000000 1.000000 1.000000
0.100000 1.000000 1.000000
0.200000 1.000000 1.000000
0.300000 1.000000 1.000000
0.400000 1.000000 1.000000
0.500000 1.000000 1.000000
0.600000 1.000000 1.000000
0.700000 1.000000 1.000000
0.800000 1.000000 1.000000
0.900000 1.000000 1.000000
0.000000 1.000000 2.000000
0.100000 1.000000 2.000000
0.200000 1.000000 2.000000
0.300000 1.000000 2.000000
0.400000 1.000000 2.000000
0.500000 1.000000 2.000000
0.600000 1.000000 2.000000
0.700000 1.000000 2.000000
0.800000 1.000000 2.000000
0.900000 1.000000 2.000000
1.000000 1.000000 2.000000
0.000000 0.000000 2.000000
0.100000 0.000000 2.000000
0.200000 0.000000 2.000000
0.300000 0.000000 2.000000
0.400000 0.000000 2.000000
0.500000 0.000000 2.000000
0.600000 0.000000 2.000000
0.700000 0.000000 2.000000
0.800000 0.000000 2.000000
0.900000 0.000000 2.000000
1.000000 0.000000 2.000000
0.000000 0.100000 0.000000
0.000000 0.200000 0.000000
0.000000 0.300000 0.000000
0.000000 0.400000 0.000000
0.000000 0.500000 0.000000
0.000000 0.600000 0.000000
0.000000 0.700000 0.000000
0.000000 0.800000 0.000000
0.000000 0.900000 0.000000
0.000000 1.000000 0.000000
0.000000 1.100000 0.000000
0.000000 1.200000 0.000000
0.000000 1.300000 0.000000
0.000000 1.400000 0.000000
0.000000 1.500000 0.000000
0.000000 1.600000 0.000000
0.000000 1.700000 0.000000
0.000000 1.800000 0.000000
0.000000 1.900000 0.000000
1.000000 0.100000 1.000000
1.000000 0.200000 1.000000
1.000000 0.300000 1.000000
1.000000 0.400000 1.000000
1.000000 0.500000 1.000000
1.000000 0.600000 1.000000
1.000000 0.700000 1.000000
1.000000 0.800000 1.000000
1.000000 0.900000 1.000000
2.000000 0.100000 1.000000
2.000000 0.200000 1.000000
2.000000 0.300000 1.000000
2.000000 0.400000 1.000000
2.000000 0.500000 1.000000
2.000000 0.600000 1.000000
2.000000 0.700000 1.000000
2.000000 0.800000 1.000000
2.000000 0.900000 1.000000
2.000000 0.100000 0.000000
2.000000 0.200000 0.000000
2.000000 0.300000 0.000000
2.000000 0.400000 0.000000
2.000000 0.500000 0.000000
2.000000 0.600000 0.000000
2.000000 0.700000 0.000000
2.000000 0.800000 0.000000
2.000000 0.900000 0.000000
0.000000 1.100000 1.000000
0.000000 1.200000 1.000000
0.000000 1.300000 1.000000
0.000000 1.400000 1.000000
0.000000 1.500000 1.000000
0.000000 1.600000 1.000000
0.000000 1.700000 1.000000
0.000000 1.800000 1.000000
0.000000 1.900000 1.000000
1.000000 1.100000 1.000000
1.000000 1.200000 1.000000
1.000000 1.300000 1.000000
1.000000 1.400000 1.000000
1.000000 1.500000 1.000000
1.000000 1.600000 1.000000
1.000000 1.700000 1.000000
1.000000 1.800000 1.000000
1.000000 1.900000 1.000000
1.000000 1.100000 0.000000
1.000000 1.200000 0.000000
1.000000 1.300000 0.000000
1.000000 1.400000 0.000000
1.000000 1.500000 0.000000
1.000000 1.600000 0.000000
1.000000 1.700000 0.000000
1.000000 1.800000 0.000000
1.000000 1.900000 0.000000
0.000000 0.100000 2.000000
0.000000 0.200000 2.000000
0.000000 0.300000 2.000000
0.000000 0.400000 2.000000
0.000000 0.500000 2.000000
0.000000 0.600000 2.000000
0.000000 0.700000 2.000000
0.000000 0.800000 2.000000
0.000000 0.900000 2.000000
1.000000 0.100000 2.000000
1.000000 0.200000 2.000000
1.000000 0.300000 2.000000
1.000000 0.400000 2.000000
1.000000 0.500000 2.000000
1.000000 0.600000 2.000000
1.000000 0.700000 2.000000
1.000000 0.800000 2.000000
1.000000 0.900000 2.000000
0.000000 0.000000 0.100000
0.000000 0.000000 0.200000
0.000000 0.000000 0.300000
0.000000 0.000000 0.400000
0.000000 0.000000 0.500000
0.000000 0.000000 0.600000
0.000000 0.000000 0.700000
0.000000 0.000000 0.800000
0.000000 0.000000 0.900000
0.000000 0.000000 1.000000
0.000000 0.000000 1.100000
0.000000 0.000000 1.200000
0.000000 0.000000 1.300000
0.000000 0.000000 1.400000
0.000000 0.000000 1.500000
0.000000 0.000000 1.600000
0.000000 0.000000 1.700000
0.000000 0.000000 1.800000
0.000000 0.000000 1.900000
2.000000 0.000000 0.100000
2.000000 0.000000 0.200000
2.000000 0.000000 0.300000
2.000000 0.000000 0.400000
2.000000 0.000000 0.500000
2.000000 0.000000 0.600000
2.000000 0.000000 0.700000
2.000000 0.000000 0.800000
2.000000 0.000000 0.900000
2.000000 1.000000 0.100000
2.000000 1.000000 0.200000
2.000000 1.000000 0.300000
2.000000 1.000000 0.400000
2.000000 1.000000 0.500000
2.000000 1.000000 0.600000
2.000000 1.000000 0.700000
2.000000 1.000000 0.800000
2.000000 1.000000 0.900000
1.000000 1.000000 0.100000
1.000000 1.000000 0.200000
1.000000 1.000000 0.300000
1.000000 1.000000 0.400000
1.000000 1.000000 0.500000
1.000000 1.000000 0.600000
1.000000 1.000000 0.700000
1.000000 1.000000 0.800000
1.000000 1.000000 0.900000
1.000000 2.000000 0.100000
1.000000 2.000000 0.200000
1.000000 2.000000 0.300000
1.000000 2.000000 0.400000
1.000000 2.000000 0.500000
1.000000 2.000000 0.600000
1.000000 2.000000 0.700000
1.000000 2.000000 0.800000
1.000000 2.000000 0.900000
0.000000 2.000000 0.100000
0.000000 2.000000 0.200000
0.000000 2.000000 0.300000
0.000000 2.000000 0.400000
0.000000 2.000000 0.500000
0.000000 2.000000 0.600000
0.000000 2.000000 0.700000
0.000000 2.000000 0.800000
0.000000 2.000000 0.900000
1.000000 0.000000 1.100000
1.000000 0.000000 1.200000
1.000000 0.000000 1.300000
1.000000 0.000000 1.400000
1.000000 0.000000 1.500000
1.000000 0.000000 1.600000
1.000000 0.000000 1.700000
1.000000 0.000000 1.800000
1.000000 0.000000 1.900000
1.000000 1.000000 1.100000
1.000000 1.000000 1.200000
1.000000 1.000000 1.300000
1.000000 1.000000 1.400000
1.000000 1.000000 1.500000
1.000000 1.000000 1.600000
1.000000 1.000000 1.700000
1.000000 1.000000 1.800000
1.000000 1.000000 1.900000
0.000000 1.000000 1.100000
0.000000 1.000000 1.200000
0.000000 1.000000 1.300000
0.000000 1.000000 1.400000
0.000000 1.000000 1.500000
0.000000 1.000000 1.600000
0.000000 1.000000 1.700000
0.000000 1.000000 1.800000
0.000000 1.000000 1.900000
2.000000 0.913397 0.650000
2.000000 0.650000 0.086602
2.000000 0.850000 0.913397
2.000000 0.750000 0.913397
2.000000 0.650000 0.913397
2.000000 0.750000 0.086602
2.000000 0.913397 0.150000
2.000000 0.913397 0.350000
2.000000 0.869381 0.098920
2.000000 0.913397 0.250000
2.000000 0.550000 0.086602
2.000000 0.913397 0.450000
2.000000 0.086602 0.750000
2.000000 0.913397 0.750000
2.000000 0.086602 0.850000
2.000000 0.150000 0.086602
2.000000 0.901080 0.869381
2.000000 0.550000 0.913397
2.000000 0.913397 0.550000
2.000000 0.350000 0.086602
2.000000 0.086602 0.650000
2.000000 0.250000 0.913397
2.000000 0.250000 0.086602
2.000000 0.130619 0.901080
2.000000 0.350000 0.913397
2.000000 0.450000 0.913397
2.000000 0.086602 0.550000
2.000000 0.086602 0.450000
2.000000 0.450000 0.086602
2.000000 0.086602 0.350000
2.000000 0.086602 0.250000
2.000000 0.098920 0.130619
2.000000 0.173205 0.600000
2.000000 0.826795 0.600000
2.000000 0.500000 0.173205
2.000000 0.826795 0.400000
2.000000 0.826795 0.500000
2.000000 0.300000 0.173205
2.000000 0.173205 0.400000
2.000000 0.700000 0.826795
2.000000 0.700000 0.173205
2.000000 0.813799 0.189453
2.000000 0.826795 0.300000
2.000000 0.600000 0.173205
2.000000 0.600000 0.826795
2.000000 0.826795 0.700000
2.000000 0.810547 0.813799
2.000000 0.400000 0.173205
2.000000 0.173205 0.300000
2.000000 0.500000 0.826795
2.000000 0.173205 0.700000
2.000000 0.186201 0.810547
2.000000 0.300000 0.826795
2.000000 0.400000 0.826795
2.000000 0.173205 0.500000
2.000000 0.189453 0.186201
2.000000 0.650000 0.740192
2.000000 0.740192 0.550000
2.000000 0.350000 0.259808
2.000000 0.740192 0.350000
2.000000 0.450000 0.259808
2.000000 0.259808 0.550000
2.000000 0.740192 0.450000
2.000000 0.550000 0.740192
2.000000 0.259808 0.350000
2.000000 0.739472 0.260950
2.000000 0.650000 0.259808
2.000000 0.550000 0.259808
2.000000 0.740192 0.650000
2.000000 0.739050 0.739472
2.000000 0.260527 0.739050
2.000000 0.259808 0.650000
2.000000 0.350000 0.740192
2.000000 0.450000 0.740192
2.000000 0.259808 0.450000
2.000000 0.260950 0.260527
2.000000 0.364740 0.378138
2.000000 0.653590 0.500000
2.000000 0.621862 0.635260
2.000000 0.621862 0.364740
2.000000 0.500000 0.346410
2.000000 0.378138 0.635260
2.000000 0.500000 0.653590
2.000000 0.346410 0.500000
2.000000 0.550731 0.553319
2.000000 0.550731 0.446681
2.000000 0.449269 0.553319
2.000000 0.446681 0.449269
1.086603 1.000000 0.350000
1.150000 1.000000 0.913397
1.250000 1.000000 0.086603
1.086603 1.000000 0.250000
1.750000 1.000000 0.086603
1.913397 1.000000 0.250000
1.850000 1.000000 0.086603
1.650000 1.000000 0.086603
1.901080 1.000000 0.130619
1.913397 1.000000 0.350000
1.913397 1.000000 0.450000
1.550000 1.000000 0.086603
1.250000 1.000000 0.913397
1.086603 1.000000 0.150000
1.450000 1.000000 0.086603
1.130619 1.000000 0.098920
1.350000 1.000000 0.086603
1.913397 1.000000 0.850000
1.086603 1.000000 0.450000
1.913397 1.000000 0.650000
1.350000 1.000000 0.913397
1.086603 1.000000 0.750000
1.913397 1.000000 0.750000
1.098920 1.000000 0.869381
1.086603 1.000000 0.650000
1.086603 1.000000 0.550000
1.450000 1.000000 0.913397
1.550000 1.000000 0.913397
1.913397 1.000000 0.550000
1.650000 1.000000 0.913397
1.750000 1.000000 0.913397
1.869381 1.000000 0.901080
1.173205 1.000000 0.400000
1.826795 1.000000 0.300000
1.300000 1.000000 0.173205
1.173205 1.000000 0.300000
1.500000 1.000000 0.173205
1.826795 1.000000 0.700000
1.826795 1.000000 0.500000
1.600000 1.000000 0.826795
1.400000 1.000000 0.173205
1.700000 1.000000 0.173205
1.600000 1.000000 0.173205
1.810547 1.000000 0.186201
1.400000 1.000000 0.826795
1.826795 1.000000 0.400000
1.186201 1.000000 0.189453
1.826795 1.000000 0.600000
1.700000 1.000000 0.826795
1.173205 1.000000 0.500000
1.300000 1.000000 0.826795
1.189453 1.000000 0.813799
1.173205 1.000000 0.700000
1.173205 1.000000 0.600000
1.500000 1.000000 0.826795
1.813799 1.000000 0.810547
1.740192 1.000000 0.450000
1.350000 1.000000 0.259808
1.259808 1.000000 0.350000
1.740192 1.000000 0.350000
1.550000 1.000000 0.259808
1.450000 1.000000 0.259808
1.650000 1.000000 0.740192
1.450000 1.000000 0.740192
1.650000 1.000000 0.259808
1.739050 1.000000 0.260527
1.550000 1.000000 0.740192
1.259808 1.000000 0.450000
1.260527 1.000000 0.260950
1.740192 1.000000 0.550000
1.740192 1.000000 0.650000
1.260950 1.000000 0.739472
1.350000 1.000000 0.740192
1.259808 1.000000 0.650000
1.259808 1.000000 0.550000
1.739473 1.000000 0.739050
1.364740 1.000000 0.378138
1.500000 1.000000 0.653590
1.621862 1.000000 0.364740
1.635260 1.000000 0.621862
1.653590 1.000000 0.500000
1.500000 1.000000 0.346410
1.364740 1.000000 0.621862
1.346410 1.000000 0.500000
1.446681 1.000000 0.449269
1.550731 1.000000 0.446681
1.446681 1.000000 0.550731
1.558405 1.000000 0.552702
1.086603 0.650000 1.000000
1.150000 0.086603 1.000000
1.250000 0.913397 1.000000
1.086603 0.750000 1.000000
1.750000 0.913397 1.000000
1.913397 0.750000 1.000000
1.850000 0.913397 1.000000
1.650000 0.913397 1.000000
1.901080 0.869381 1.000000
1.913397 0.650000 1.000000
1.913397 0.550000 1.000000
1.550000 0.913397 1.000000
1.250000 0.086603 1.000000
1.086603 0.850000 1.000000
1.450000 0.913397 1.000000
1.130619 0.901080 1.000000
1.350000 0.913397 1.000000
1.913397 0.150000 1.000000
1.086603 0.550000 1.000000
1.913397 0.350000 1.000000
1.350000 0.086603 1.000000
1.086603 0.250000 1.000000
1.913397 0.250000 1.000000
1.098920 0.130619 1.000000
1.086603 0.350000 1.000000
1.086603 0.450000 1.000000
1.450000 0.086603 1.000000
1.550000 0.086603 1.000000
1.913397 0.450000 1.000000
1.650000 0.086603 1.000000
1.750000 0.086603 1.000000
1.869381 0.098920 1.000000
1.173205 0.600000 1.000000
1.826795 0.700000 1.000000
1.300000 0.826795 1.000000
1.173205 0.700000 1.000000
1.500000 0.826795 1.000000
1.826795 0.300000 1.000000
1.826795 0.500000 1.000000
1.600000 0.173205 1.000000
1.400000 0.826795 1.000000
1.700000 0.826795 1.000000
1.600000 0.826795 1.000000
1.810547 0.813799 1.000000
1.400000 0.173205 1.000000
1.826795 0.600000 1.000000
1.186201 0.810547 1.000000
1.826795 0.400000 1.000000
1.700000 0.173205 1.000000
1.173205 0.500000 1.000000
1.300000 0.173205 1.000000
1.189453 0.186201 1.000000
1.173205 0.300000 1.000000
1.173205 0.400000 1.000000
1.500000 0.173205 1.000000
1.813799 0.189453 1.000000
1.740192 0.550000 1.000000
1.350000 0.740192 1.000000
1.259808 0.650000 1.000000
1.740192 0.650000 1.000000
1.550000 0.740192 1.000000
1.450000 0.740192 1.000000
1.650000 0.259808 1.000000
1.550000 0.259808 1.000000
1.650000 0.740192 1.000000
1.739050 0.739472 1.000000
1.450000 0.259808 1.000000
1.259808 0.550000 1.000000
1.260527 0.739050 1.000000
1.740192 0.450000 1.000000
1.740192 0.350000 1.000000
1.260950 0.260528 1.000000
1.350000 0.259808 1.000000
1.259808 0.350000 1.000000
1.259808 0.450000 1.000000
1.739473 0.260950 1.000000
1.364740 0.621862 1.000000
1.635260 0.378138 1.000000
1.653590 0.500000 1.000000
1.621862 0.635260 1.000000
1.500000 0.653590 1.000000
1.500000 0.346410 1.000000
1.364740 0.378138 1.000000
1.346410 0.500000 1.000000
1.446681 0.550731 1.000000
1.550731 0.553319 1.000000
1.446681 0.449269 1.000000
1.558405 0.447298 1.000000
1.000000 1.913397 0.650000
1.000000 1.650000 0.086603
1.000000 1.850000 0.913397
1.000000 1.750000 0.913397
1.000000 1.650000 0.913397
1.000000 1.750000 0.086603
1.000000 1.913397 0.150000
1.000000 1.913397 0.350000
1.000000 1.869381 0.098920
1.000000 1.913397 0.250000
1.000000 1.550000 0.086603
1.000000 1.913397 0.450000
1.000000 1.086603 0.750000
1.000000 1.913397 0.750000
1.000000 1.086603 0.850000
1.000000 1.150000 0.086603
1.000000 1.901080 0.869381
1.000000 1.550000 0.913397
1.000000 1.913397 0.550000
1.000000 1.350000 0.086603
1.000000 1.086603 0.650000
1.000000 1.250000 0.913397
1.000000 1.250000 0.086603
1.000000 1.130619 0.901080
1.000000 1.350000 0.913397
1.000000 1.450000 0.913397
1.000000 1.086603 0.550000
1.000000 1.086603 0.450000
1.000000 1.450000 0.086603
1.000000 1.086603 0.350000
1.000000 1.086603 0.250000
1.000000 1.098920 0.130619
1.000000 1.173205 0.600000
1.000000 1.826795 0.600000
1.000000 1.826795 0.400000
1.000000 1.826795 0.500000
1.000000 1.173205 0.400000
1.000000 1.700000 0.826795
1.000000 1.300000 0.173205
1.000000 1.700000 0.173205
1.000000 1.813799 0.189453
1.000000 1.826795 0.300000
1.000000 1.600000 0.173205
1.000000 1.600000 0.826795
1.000000 1.826795 0.700000
1.000000 1.810547 0.813799
1.000000 1.173205 0.300000
1.000000 1.500000 0.826795
1.000000 1.173205 0.700000
1.000000 1.500000 0.173205
1.000000 1.186201 0.810547
1.000000 1.300000 0.826795
1.000000 1.400000 0.826795
1.000000 1.173205 0.500000
1.000000 1.400000 0.173205
1.000000 1.189453 0.186201
1.000000 1.650000 0.740192
1.000000 1.550000 0.740192
1.000000 1.740192 0.550000
1.000000 1.740192 0.350000
1.000000 1.259808 0.550000
1.000000 1.739473 0.260950
1.000000 1.650000 0.259808
1.000000 1.740192 0.450000
1.000000 1.740192 0.650000
1.000000 1.739050 0.739472
1.000000 1.259808 0.350000
1.000000 1.550000 0.259808
1.000000 1.260527 0.739050
1.000000 1.259808 0.650000
1.000000 1.350000 0.740192
1.000000 1.450000 0.740192
1.000000 1.259808 0.450000
1.000000 1.450000 0.259808
1.000000 1.350000 0.259808
1.000000 1.260950 0.260527
1.000000 1.621862 0.364740
1.000000 1.621862 0.635260
1.000000 1.653590 0.500000
1.000000 1.378138 0.635260
1.000000 1.500000 0.653590
1.000000 1.346410 0.500000
1.000000 1.500000 0.346410
1.000000 1.378138 0.364740
1.000000 1.449269 0.553319
1.000000 1.550731 0.446681
1.000000 1.550731 0.553319
1.000000 1.449269 0.446681
0.086603 2.000000 0.350000
0.150000 2.000000 0.913397
0.250000 2.000000 0.086602
0.086603 2.000000 0.250000
0.750000 2.000000 0.086602
0.913397 2.000000 0.250000
0.850000 2.000000 0.086602
0.650000 2.000000 0.086602
0.901080 2.000000 0.130619
0.913397 2.000000 0.350000
0.913397 2.000000 0.450000
0.550000 2.000000 0.086602
0.250000 2.000000 0.913397
0.086603 2.000000 0.150000
0.450000 2.000000 0.086602
0.130619 2.000000 0.098920
0.350000 2.000000 0.086602
0.913397 2.000000 0.850000
0.086603 2.000000 0.450000
0.913397 2.000000 0.650000
0.350000 2.000000 0.913397
0.086603 2.000000 0.750000
0.913397 2.000000 0.750000
0.098920 2.000000 0.869381
0.086603 2.000000 0.650000
0.086603 2.000000 0.550000
0.450000 2.000000 0.913397
0.550000 2.000000 0.913397
0.913397 2.000000 0.550000
0.650000 2.000000 0.913397
0.750000 2.000000 0.913397
0.869381 2.000000 0.901080
0.173205 2.000000 0.400000
0.826795 2.000000 0.300000
0.826795 2.000000 0.700000
0.300000 2.000000 0.173205
0.173205 2.000000 0.300000
0.500000 2.000000 0.173205
0.826795 2.000000 0.500000
0.600000 2.000000 0.826795
0.400000 2.000000 0.173205
0.700000 2.000000 0.173205
0.600000 2.000000 0.173205
0.810547 2.000000 0.186201
0.400000 2.000000 0.826795
0.826795 2.000000 0.400000
0.186201 2.000000 0.189453
0.826795 2.000000 0.600000
0.700000 2.000000 0.826795
0.173205 2.000000 0.500000
0.300000 2.000000 0.826795
0.189453 2.000000 0.813799
0.173205 2.000000 0.700000
0.173205 2.000000 0.600000
0.500000 2.000000 0.826795
0.813799 2.000000 0.810547
0.350000 2.000000 0.259808
0.259808 2.000000 0.350000
0.740192 2.000000 0.450000
0.740192 2.000000 0.350000
0.650000 2.000000 0.740192
0.650000 2.000000 0.259808
0.450000 2.000000 0.259808
0.450000 2.000000 0.740192
0.550000 2.000000 0.259808
0.739050 2.000000 0.260527
0.550000 2.000000 0.740192
0.259808 2.000000 0.450000
0.260528 2.000000 0.260950
0.740192 2.000000 0.550000
0.740192 2.000000 0.650000
0.260950 2.000000 0.739472
0.350000 2.000000 0.740192
0.259808 2.000000 0.650000
0.259808 2.000000 0.550000
0.739472 2.000000 0.739050
0.653590 2.000000 0.500000
0.635260 2.000000 0.621862
0.621862 2.000000 0.364740
0.364740 2.000000 0.378138
0.500000 2.000000 0.653590
0.500000 2.000000 0.346410
0.364740 2.000000 0.621862
0.346410 2.000000 0.500000
0.550731 2.000000 0.446681
0.446681 2.000000 0.449269
0.446681 2.000000 0.550731
0.558405 2.000000 0.552702
0.913398 1.650000 1.000000
0.650000 1.086603 1.000000
0.850000 1.913397 1.000000
0.750000 1.913397 1.000000
0.650000 1.913397 1.000000
0.750000 1.086602 1.000000
0.913398 1.150000 1.000000
0.913398 1.350000 1.000000
0.869381 1.098920 1.000000
0.913398 1.250000 1.000000
0.550000 1.086603 1.000000
0.913398 1.450000 1.000000
0.086603 1.750000 1.000000
0.913398 1.750000 1.000000
0.086603 1.850000 1.000000
0.150000 1.086603 1.000000
0.901080 1.869381 1.000000
0.550000 1.913397 1.000000
0.913398 1.550000 1.000000
0.350000 1.086603 1.000000
0.086603 1.650000 1.000000
0.250000 1.913397 1.000000
0.250000 1.086603 1.000000
0.130619 1.901080 1.000000
0.350000 1.913397 1.000000
0.450000 1.913397 1.000000
0.086603 1.550000 1.000000
0.086603 1.450000 1.000000
0.450000 1.086603 1.000000
0.086603 1.350000 1.000000
0.086603 1.250000 1.000000
0.098920 1.130619 1.000000
0.173205 1.600000 1.000000
0.826795 1.600000 1.000000
0.500000 1.173205 1.000000
0.826795 1.400000 1.000000
0.826795 1.500000 1.000000
0.173205 1.400000 1.000000
0.700000 1.826795 1.000000
0.300000 1.173205 1.000000
0.700000 1.173205 1.000000
0.813799 1.189453 1.000000
0.826795 1.300000 1.000000
0.600000 1.173205 1.000000
0.600000 1.826795 1.000000
0.826795 1.700000 1.000000
0.810547 1.813799 1.000000
0.400000 1.173205 1.000000
0.173205 1.300000 1.000000
0.500000 1.826795 1.000000
0.173205 1.700000 1.000000
0.186201 1.810547 1.000000
0.300000 1.826795 1.000000
0.400000 1.826795 1.000000
0.173205 1.500000 1.000000
0.189453 1.186201 1.000000
0.650000 1.740192 1.000000
0.740192 1.550000 1.000000
0.740192 1.350000 1.000000
0.450000 1.259808 1.000000
0.740192 1.450000 1.000000
0.259808 1.550000 1.000000
0.550000 1.740192 1.000000
0.350000 1.259808 1.000000
0.739473 1.260950 1.000000
0.650000 1.259808 1.000000
0.550000 1.259808 1.000000
0.740192 1.650000 1.000000
0.739050 1.739472 1.000000
0.259808 1.350000 1.000000
0.260528 1.739050 1.000000
0.259808 1.650000 1.000000
0.350000 1.740192 1.000000
0.450000 1.740192 1.000000
0.259808 1.450000 1.000000
0.260950 1.260527 1.000000
0.653590 1.500000 1.000000
0.621862 1.635260 1.000000
0.621862 1.364740 1.000000
0.500000 1.346410 1.000000
0.364741 1.378138 1.000000
0.378138 1.635260 1.000000
0.500000 1.653590 1.000000
0.346410 1.500000 1.000000
0.550731 1.553319 1.000000
0.550731 1.446681 1.000000
0.449270 1.553319 1.000000
0.446681 1.449269 1.000000
1.000000 0.913397 1.350000
1.000000 0.850000 1.913397
1.000000 0.750000 1.086603
1.000000 0.913397 1.250000
1.000000 0.250000 1.086603
1.000000 0.086603 1.250000
1.000000 0.150000 1.086603
1.000000 0.350000 1.086603
1.000000 0.098920 1.130619
1.000000 0.086603 1.350000
1.000000 0.086603 1.450000
1.000000 0.450000 1.086603
1.000000 0.750000 1.913397
1.000000 0.913397 1.150000
1.000000 0.550000 1.086603
1.000000 0.869381 1.098920
1.000000 0.650000 1.086603
1.000000 0.086603 1.850000
1.000000 0.913397 1.450000
1.000000 0.086603 1.650000
1.000000 0.650000 1.913397
1.000000 0.913397 1.750000
1.000000 0.086603 1.750000
1.000000 0.901080 1.869381
1.000000 0.913397 1.650000
1.000000 0.913397 1.550000
1.000000 0.550000 1.913397
1.000000 0.450000 1.913397
1.000000 0.086603 1.550000
1.000000 0.350000 1.913397
1.000000 0.250000 1.913397
1.000000 0.130619 1.901080
1.000000 0.826795 1.400000
1.000000 0.173205 1.300000
1.000000 0.700000 1.173205
1.000000 0.826795 1.300000
1.000000 0.500000 1.173205
1.000000 0.173205 1.700000
1.000000 0.400000 1.826795
1.000000 0.600000 1.173205
1.000000 0.300000 1.173205
1.000000 0.400000 1.173205
1.000000 0.189453 1.186201
1.000000 0.600000 1.826795
1.000000 0.173205 1.400000
1.000000 0.813799 1.189453
1.000000 0.300000 1.826795
1.000000 0.826795 1.500000
1.000000 0.700000 1.826795
1.000000 0.173205 1.500000
1.000000 0.810547 1.813799
1.000000 0.826795 1.700000
1.000000 0.826795 1.600000
1.000000 0.500000 1.826795
1.000000 0.173205 1.600000
1.000000 0.186201 1.810547
1.000000 0.650000 1.259808
1.000000 0.740192 1.350000
1.000000 0.350000 1.740192
1.000000 0.259808 1.350000
1.000000 0.350000 1.259808
1.000000 0.550000 1.259808
1.000000 0.550000 1.740192
1.000000 0.450000 1.259808
1.000000 0.260950 1.260527
1.000000 0.740192 1.450000
1.000000 0.739472 1.260950
1.000000 0.450000 1.740192
1.000000 0.259808 1.450000
1.000000 0.739050 1.739473
1.000000 0.650000 1.740192
1.000000 0.740192 1.650000
1.000000 0.740192 1.550000
1.000000 0.259808 1.550000
1.000000 0.259808 1.650000
1.000000 0.260527 1.739050
1.000000 0.500000 1.653590
1.000000 0.635260 1.378138
1.000000 0.364740 1.378138
1.000000 0.500000 1.346410
1.000000 0.635260 1.621862
1.000000 0.653590 1.500000
1.000000 0.346410 1.500000
1.000000 0.364740 1.621862
1.000000 0.553319 1.449269
1.000000 0.553319 1.550731
1.000000 0.446681 1.449269
1.000000 0.446681 1.550731
0.086603 1.000000 1.350000
0.150000 1.000000 1.913397
0.250000 1.000000 1.086603
0.086603 1.000000 1.250000
0.750000 1.000000 1.086603
0.913397 1.000000 1.250000
0.850000 1.000000 1.086603
0.650000 1.000000 1.086603
0.901080 1.000000 1.130619
0.913397 1.000000 1.350000
0.913397 1.000000 1.450000
0.550000 1.000000 1.086603
0.250000 1.000000 1.913397
0.086603 1.000000 1.150000
0.450000 1.000000 1.086603
0.130619 1.000000 1.098920
0.350000 1.000000 1.086603
0.913397 1.000000 1.850000
0.086603 1.000000 1.450000
0.913397 1.000000 1.650000
0.350000 1.000000 1.913397
0.086603 1.000000 1.750000
0.913397 1.000000 1.750000
0.098920 1.000000 1.869381
0.086603 1.000000 1.650000
0.086603 1.000000 1.550000
0.450000 1.000000 1.913397
0.550000 1.000000 1.913397
0.913397 1.000000 1.550000
0.650000 1.000000 1.913397
0.750000 1.000000 1.913397
0.869381 1.000000 1.901080
0.173205 1.000000 1.400000
0.826795 1.000000 1.300000
0.300000 1.000000 1.173205
0.173205 1.000000 1.300000
0.500000 1.000000 1.173205
0.826795 1.000000 1.700000
0.826795 1.000000 1.500000
0.600000 1.000000 1.826795
0.173205 1.000000 1.500000
0.400000 1.000000 1.173205
0.700000 1.000000 1.173205
0.600000 1.000000 1.173205
0.810547 1.000000 1.186201
0.400000 1.000000 1.826795
0.826795 1.000000 1.400000
0.186201 1.000000 1.189453
0.826795 1.000000 1.600000
0.700000 1.000000 1.826795
0.300000 1.000000 1.826795
0.189453 1.000000 1.813799
0.173205 1.000000 1.700000
0.173205 1.000000 1.600000
0.500000 1.000000 1.826795
0.813799 1.000000 1.810547
0.740192 1.000000 1.450000
0.259808 1.000000 1.450000
0.259808 1.000000 1.350000
0.350000 1.000000 1.259808
0.740192 1.000000 1.550000
0.740192 1.000000 1.350000
0.650000 1.000000 1.259808
0.450000 1.000000 1.259808
0.450000 1.000000 1.740192
0.650000 1.000000 1.740192
0.550000 1.000000 1.740192
0.550000 1.000000 1.259808
0.739050 1.000000 1.260527
0.260528 1.000000 1.260950
0.740192 1.000000 1.650000
0.260950 1.000000 1.739473
0.350000 1.000000 1.740192
0.259808 1.000000 1.650000
0.259808 1.000000 1.550000
0.739472 1.000000 1.739050
0.400000 1.000000 1.346410
0.621862 1.000000 1.635260
0.621862 1.000000 1.364740
0.346410 1.000000 1.400000
0.653590 1.000000 1.500000
0.500000 1.000000 1.653590
0.500000 1.000000 1.346410
0.364740 1.000000 1.621862
0.346410 1.000000 1.500000
0.311968 1.000000 1.311968
0.433013 1.000000 1.450000
0.550731 1.000000 1.553319
0.550731 1.000000 1.446681
0.446681 1.000000 1.550731
0.913397 0.650000 2.000000
0.650000 0.086603 2.000000
0.850000 0.913397 2.000000
0.750000 0.913397 2.000000
0.650000 0.913397 2.000000
0.750000 0.086603 2.000000
0.913397 0.150000 2.000000
0.913397 0.350000 2.000000
0.869381 0.098920 2.000000
0.913397 0.250000 2.000000
0.550000 0.086603 2.000000
0.913397 0.450000 2.000000
0.086603 0.750000 2.000000
0.913397 0.750000 2.000000
0.086603 0.850000 2.000000
0.150000 0.086603 2.000000
0.901080 0.869381 2.000000
0.550000 0.913397 2.000000
0.913397 0.550000 2.000000
0.350000 0.086603 2.000000
0.086603 0.650000 2.000000
0.250000 0.913397 2.000000
0.250000 0.086603 2.000000
0.130619 0.901080 2.000000
0.350000 0.913397 2.000000
0.450000 0.913397 2.000000
0.086603 0.550000 2.000000
0.086603 0.450000 2.000000
0.450000 0.086603 2.000000
0.086603 0.350000 2.000000
0.086603 0.250000 2.000000
0.098920 0.130619 2.000000
0.173205 0.600000 2.000000
0.826795 0.600000 2.000000
0.500000 0.173205 2.000000
0.826795 0.400000 2.000000
0.826795 0.500000 2.000000
0.300000 0.173205 2.000000
0.173205 0.400000 2.000000
0.700000 0.826795 2.000000
0.700000 0.173205 2.000000
0.813799 0.189453 2.000000
0.826795 0.300000 2.000000
0.600000 0.173205 2.000000
0.600000 0.826795 2.000000
0.826795 0.700000 2.000000
0.810547 0.813799 2.000000
0.400000 0.173205 2.000000
0.173205 0.300000 2.000000
0.500000 0.826795 2.000000
0.173205 0.700000 2.000000
0.186201 0.810547 2.000000
0.300000 0.826795 2.000000
0.400000 0.826795 2.000000
0.173205 0.500000 2.000000
0.189453 0.186201 2.000000
0.650000 0.740192 2.000000
0.740192 0.550000 2.000000
0.350000 0.259808 2.000000
0.740192 0.350000 2.000000
0.450000 0.259808 2.000000
0.259808 0.550000 2.000000
0.740192 0.450000 2.000000
0.550000 0.740192 2.000000
0.259808 0.350000 2.000000
0.739472 0.260950 2.000000
0.650000 0.259808 2.000000
0.550000 0.259808 2.000000
0.740192 0.650000 2.000000
0.739050 0.739472 2.000000
0.260528 0.739050 2.000000
0.259808 0.650000 2.000000
0.350000 0.740192 2.000000
0.450000 0.740192 2.000000
0.259808 0.450000 2.000000
0.260950 0.260527 2.000000
0.364740 0.378138 2.000000
0.653590 0.500000 2.000000
0.621862 0.635260 2.000000
0.621862 0.364740 2.000000
0.500000 0.346410 2.000000
0.378138 0.635260 2.000000
0.500000 0.653590 2.000000
0.346410 0.500000 2.000000
0.550731 0.553319 2.000000
0.550731 0.446681 2.000000
0.449269 0.553319 2.000000
0.446681 0.449269 2.000000
1.913398 0.850000 -0.000000
0.550000 1.913397 -0.000000
1.250000 0.086602 -0.000000
0.913398 1.750000 -0.000000
0.086603 1.550000 -0.000000
0.086603 1.650000 -0.000000
0.086603 1.750000 -0.000000
0.250000 1.913397 -0.000000
0.913398 1.650000 -0.000000
0.913398 1.150000 -0.000000
0.913398 1.050000 -0.000000
0.913398 1.850000 -0.000000
0.350000 0.086603 -0.000000
0.086603 0.450000 -0.000000
0.913398 1.450000 -0.000000
0.250000 0.086603 -0.000000
0.086603 0.150000 -0.000000
0.086603 0.350000 -0.000000
0.913398 1.550000 -0.000000
0.130619 0.098920 -0.000000
0.086603 0.250000 -0.000000